32
Lattice="7.665 0.0 0.0 0.0 7.665 0.0 0.0 0.0 7.665" Properties=species:S:1:pos:R:3:forces:R:3:magmoms:R:1 energy=-107.15377174 stress="0.018765392566387398 0.019292797384951082 -0.0014262911780968113 0.019292797384951082 0.011607148100010524 0.005282986575957905 -0.0014262911780968113 0.005282986575957905 0.006006544849714987" dipole="0.0 0.0 0.0" magmom=0.0 free_energy=-107.15376893 pbc="T T T"
Cu 5.16411 2.45044 1.07979 1.41749955 -1.02636303 0.6457955 0.0
Cu 5.35063 1.51406 3.51548 -0.32751183 -0.43678853 0.0964562 0.0
Cu 3.16902 1.39341 1.79801 1.04107628 -0.09535473 -0.17995471 0.0
Cu 6.80717 3.66063 2.43875 -0.19751152 0.32345106 0.52893005 0.0
Cu 1.23703 2.46613 2.2034 -1.01722495 0.67004168 0.34884546 0.0
Cu 6.58036 0.65213 1.80286 0.82624777 -0.34404375 -0.94690095 0.0
Cu 1.35118 0.0306971 0.797809 -0.25161997 -0.44037396 0.57564636 0.0
Cu 0.726601 0.45948 3.81139 0.80781206 0.66654997 -0.97878037 0.0
Cu 4.60552 3.16424 4.88676 1.47051037 1.1625895 0.70601595 0.0
Cu 2.99881 1.77443 6.82521 -0.57092548 -0.11705097 0.0355426 0.0
Cu 6.16856 1.64205 5.9678 -0.65293588 -0.51888646 0.83021786 0.0
Cu 2.66927 2.27261 4.13283 -0.26915507 -0.95111673 -0.36620741 0.0
Cu 0.902882 0.167539 6.18679 0.15452498 1.00967632 -0.63341284 0.0
Cu 0.446062 2.45919 5.05745 0.3507623 1.3007456 -0.1931069 0.0
Cu 3.78082 0.199114 5.25195 0.40026869 -0.46523995 -0.58420006 0.0
Cu 4.12385 3.72545 7.35433 -0.38862946 1.79460402 -1.20271487 0.0
Cu 0.609142 2.21784 7.57879 -0.60690668 0.51633428 -0.17184167 0.0
Cu 1.63315 4.91164 3.52315 -0.76241371 -0.68113893 -0.6550684 0.0
Cu 3.51256 4.02101 1.95854 -0.42728543 0.04104996 1.10383946 0.0
Cu 7.44559 6.24478 2.7025 -0.24737579 -0.93561167 -0.92202926 0.0
Cu 2.59339 6.95978 2.77083 0.58735064 -0.52406386 0.02010022 0.0
Cu 1.39139 4.94934 0.888594 0.70455738 -0.41664885 2.2270673 0.0
Cu 5.08938 5.81601 1.29107 0.84902938 -1.15003224 -0.17128233 0.0
Cu 3.92111 7.32008 0.183112 -0.67771406 0.89156996 -0.88002072 0.0
Cu 6.90488 4.48493 0.0682634 -0.77145658 -1.81916687 -0.15489079 0.0
Cu 4.77657 5.82598 3.52389 -0.2752647 -0.21929794 1.15112748 0.0
Cu 6.77952 4.92184 5.03189 1.25885039 -2.29761863 -0.60673159 0.0
Cu 6.56975 7.09875 4.76274 -1.15814881 1.53840941 0.4172699 0.0
Cu 4.89231 5.63755 6.05971 -1.45617376 0.28295227 0.36899149 0.0
Cu 2.70004 4.31978 5.40251 0.28884798 -0.0243819 0.97269378 0.0
Cu 6.63564 6.66282 7.3023 0.38766895 1.97041713 0.07301828 0.0
Cu 1.1037 5.55124 6.48151 -0.48675306 0.29478782 -1.45441502 0.0
19
Lattice="19.2 0.0 0.0 0.0 19.2 0.0 0.0 0.0 19.2" Properties=species:S:1:pos:R:3:forces:R:3:magmoms:R:1 energy=-44.0538556 stress="0.0014435169069220264 -1.889304812404862e-08 0.00028728531800081554 -1.889304812404862e-08 0.0004614338084841439 7.009283404967284e-05 0.00028728531800081554 7.009283404967284e-05 0.0007316955601403319" dipole="0.0 0.0 0.0" magmom=0.0 free_energy=-44.05738137 pbc="T T T"
Cu 11.7981 7.2154 6.9932 -0.42617758 0.33021062 0.85693631 0.0
Cu 10.8118 8.4751 8.8321 0.88345601 -0.58523323 -0.8042822 0.0
Cu 4.67989 9.5455 8.5339 1.1719458 0.32984161 0.53938737 0.0
Cu 6.8946 8.679 9.5231 0.22077043 0.65649787 0.04846732 0.0
Cu 13.6358 6.9312 11.9559 -0.59195044 0.31181805 -0.43101028 0.0
Cu 11.4878 8.1523 12.045 -0.3959629 0.63858714 -0.20406907 0.0
Cu 13.0065 9.0065 10.3759 0.28655852 -1.47888149 0.35843475 0.0
Cu 11.8445 6.723 10.2352 0.4248505 0.44041734 -0.60437962 0.0
Cu 9.3825 8.9911 10.6203 0.03741891 -0.08933208 1.369888 0.0
Cu 10.1009 11.4875 7.4506 0.40524881 0.5270351 0.12275687 0.0
Cu 7.5782 10.7354 6.9547 -0.10163429 0.04766331 -0.74604953 0.0
Cu 6.8809 11.0206 9.0971 -0.65061447 0.10276679 0.76600702 0.0
Cu 8.9826 9.9915 8.634 -0.57059931 -0.79625169 -0.37329703 0.0
Cu 9.5487 9.6172 6.1517 0.30464355 -0.40197264 0.47013971 0.0
Cu 10.5344 12.5507 11.87 0.64124619 0.2856097 0.0050331 0.0
Cu 9.2581 10.7698 12.3666 0.01654906 -0.771453 -0.30246087 0.0
Cu 9.2248 11.8501 10.1199 -0.2293259 -0.51357881 -0.47213396 0.0
Cu 11.5094 10.5113 9.8166 -1.76755803 1.28305279 -0.02583819 0.0
Cu 5.2407 10.1468 10.8242 0.34113514 -0.31679738 -0.5735297 0.0
32
Lattice="7.471999877 0.0 0.0 0.0 7.471999877 0.0 0.0 0.0 7.471999877" Properties=species:S:1:pos:R:3:forces:R:3:magmoms:R:1 energy=-104.63832358 stress="-0.06135607696666747 0.012502138497064257 -0.013078750094067034 0.012502138497064257 -0.07864834819339789 -0.021771433010040336 -0.013078750094067034 -0.021771433010040336 -0.07510941139555043" dipole="0.0 0.0 0.0" magmom=0.0 free_energy=-104.63894736 pbc="T T T"
Cu 3.25337073 2.65768492 5.17016202 -0.12370356 -0.28518815 -0.06071839 0.0
Cu 6.07480015 1.38166389 3.66759776 -0.12616809 -0.19315587 0.04652608 0.0
Cu 4.158062 0.47683759 4.86719243 -0.09515548 -0.08928089 -0.161702 0.0
Cu 5.51742542 2.18089957 6.10053719 -0.35706927 0.19157635 0.01767552 0.0
Cu 1.29309886 6.23466745 0.04612315 -0.5331837 0.18460518 0.84910384 0.0
Cu 3.81628884 4.89762271 5.37478576 -0.21139694 -0.54191918 -0.13043483 0.0
Cu 6.24393406 1.9509805 1.1923035 -0.5522371 0.60288369 0.11696681 0.0
Cu 3.13140695 7.21930071 1.40819328 0.01080686 0.37587212 -0.0146034 0.0
Cu 2.52221391 1.44352237 3.01618236 0.20518043 0.03386539 0.05953517 0.0
Cu 1.68762721 4.32632153 4.42490123 0.11828576 0.13922251 0.20352601 0.0
Cu 1.76074752 4.02632315 0.29123691 0.27366651 -0.39763445 -0.38149217 0.0
Cu 3.56195929 2.27246816 0.54045192 0.53426214 -0.12368054 0.30928969 0.0
Cu 0.24993235 2.58869334 6.92288812 -0.08020777 -0.06304703 -0.34811677 0.0
Cu 0.61411679 0.77623494 0.84791776 1.39057787 -0.11528771 0.9970231 0.0
Cu 3.55919962 6.55739038 6.69782701 0.31522337 0.25695921 0.33906664 0.0
Cu 1.6526471 6.44449813 5.34171221 -0.27695277 0.55584355 -0.51023833 0.0
Cu 2.64162004 3.81713961 2.43234807 0.17583252 0.05234738 -0.11586782 0.0
Cu 6.33356061 6.86928369 5.39057909 -0.05070398 0.37454786 -0.34420984 0.0
Cu 7.29204257 3.14972075 4.60329023 -0.11209392 -0.23263898 -0.65300828 0.0
Cu 7.41174778 4.90305351 6.12292054 -0.46146417 -0.17375242 -0.07076322 0.0
Cu 1.00016843 1.38340485 5.0280638 0.2358113 -0.20530789 -0.20900853 0.0
Cu 3.11263271 6.26723783 3.50953171 -0.4124151 -0.18863413 -0.0243041 0.0
Cu 4.74375078 3.05371954 2.41786063 0.06096472 -0.24265256 0.46117846 0.0
Cu 0.60521972 7.32427248 3.51396759 0.48384801 -0.04534757 -0.50095101 0.0
Cu 0.99998611 5.47530824 2.22615348 -0.61493603 -0.45856912 0.00734143 0.0
Cu 4.97672247 5.51637021 2.30204714 -0.6470438 -0.09089065 -0.12490435 0.0
Cu 2.30371635 0.94677985 6.73099371 0.18078562 0.30848266 0.23399549 0.0
Cu 4.09828003 4.61009132 0.33331496 0.19084408 -0.50191694 0.01060249 0.0
Cu 5.51591805 4.26233571 4.16325196 0.17997961 0.81511389 0.29911595 0.0
Cu 6.47411329 7.11573947 2.03022053 -0.5014556 -0.33042493 -0.29384859 0.0
Cu 5.31185282 0.13248645 0.11175855 0.27858718 0.04672428 -0.50267205 0.0
Cu 6.47705869 4.32863123 0.76631314 0.5215313 0.34128494 0.49589702 0.0
5
Lattice="4.13124113 0.0 0.0 -0.9721359524 3.991357988 0.0 -0.7163997989 1.686969204 3.935728649" Properties=species:S:1:pos:R:3:forces:R:3:magmoms:R:1 energy=-17.47140776 stress="-0.03761096281626631 0.004240411139321001 0.004832909274467926 0.004240411139321001 -0.03311287001773232 0.0022489881472623225 0.004832909274467926 0.0022489881472623225 -0.028412818417778277" dipole="0.0 0.0 0.0" magmom=0.0 free_energy=-17.47126537 pbc="T T T"
Cu 2.20282803 3.03007102 2.955381 0.06562694 -0.33438908 -0.03595404 0.0
Cu 2.86412711 0.78946547 1.38170842 0.06348125 0.05978558 0.23229755 0.0
Cu -0.02217912 4.61034024 2.8656026 0.10728982 0.18730746 0.11760209 0.0
Cu 0.27778728 2.64853402 1.53678523 -0.13170308 0.30559576 -0.4289423 0.0
Cu 0.82001106 0.76859048 0.15671278 -0.10469492 -0.21829973 0.1149967 0.0
43
Lattice="19.2 0.0 0.0 0.0 19.2 0.0 0.0 0.0 19.2" Properties=species:S:1:pos:R:3:forces:R:3:magmoms:R:1 energy=-118.60443907 stress="0.0012135400334509737 0.0005407528538067156 0.0012170696817597703 0.0005407528538067156 0.0017292629564252347 -0.0005660766785793808 0.0012170696817597703 -0.0005660766785793808 0.00013807787301848014" dipole="0.0 0.0 0.0" magmom=0.0 free_energy=-118.60982537 pbc="T T T"
Cu 12.7677 8.4541 5.2483 -0.37645141 -0.10153416 0.34237967 0.0
Cu 6.3958 7.3079 9.1101 -0.0673016 0.17023432 -0.14270422 0.0
Cu 6.1827 8.8587 6.9742 0.62162475 -0.08325541 0.66869622 0.0
Cu 8.3095 7.5537 7.7646 0.31141622 0.39799865 0.23798093 0.0
Cu 13.9959 7.8551 7.273 -0.22906447 0.3408099 -0.60955195 0.0
Cu 12.8254 9.0752 8.9156 -0.11125445 0.35111712 0.1755194 0.0
Cu 9.4629 5.5201 7.3451 1.03500136 0.72494293 0.59155867 0.0
Cu 10.6848 7.9012 6.8524 0.15778098 -1.71416656 -0.5575734 0.0
Cu 12.175 6.0908 7.6887 -0.02272348 -0.6542427 -1.712861 0.0
Cu 13.7559 6.6283 9.2521 -0.28087621 0.60917709 0.79023786 0.0
Cu 11.092 7.1938 9.238 -1.13111093 0.69138507 1.12223027 0.0
Cu 12.3558 7.9917 11.2136 0.86210012 -0.63680142 -0.51385104 0.0
Cu 7.1658 8.7474 10.8391 -1.86171452 0.60025811 -0.34188049 0.0
Cu 6.1555 6.4378 11.4326 0.89951883 -1.0499059 -0.92885029 0.0
Cu 8.3095 7.3296 12.3074 0.43024747 -0.48556276 0.61138848 0.0
Cu 5.3893 8.2856 12.304 -0.57470782 1.78238402 0.75128622 0.0
Cu 9.1829 8.6712 10.1021 0.99719523 -0.66056003 1.34632973 0.0
Cu 10.4914 8.4822 12.4998 -1.04774315 0.14309459 0.14855174 0.0
Cu 7.578 9.3659 13.0212 -0.37962419 0.70377382 1.09468443 0.0
Cu 8.6282 6.3188 10.298 -0.1793515 -0.00391229 -1.39470591 0.0
Cu 7.1985 12.2306 7.1606 0.55359671 -0.72699193 0.10428757 0.0
Cu 6.7769 10.4275 8.7905 1.2799429 -0.67895888 -1.07473967 0.0
Cu 10.0872 11.6919 7.1433 -0.16142413 0.08999815 0.60742304 0.0
Cu 8.0817 13.3484 9.1422 0.11542833 -0.23844763 0.25423183 0.0
Cu 8.4924 9.8453 6.8358 -1.1937184 0.42076761 -0.74249286 0.0
Cu 14.4535 10.9319 8.561 -0.22042107 -0.52582255 -0.16271931 0.0
Cu 10.7572 9.8362 5.6728 -0.06670247 0.54316368 -0.05622288 0.0
Cu 12.2812 11.7174 8.3395 -0.41122771 -0.58995213 0.07103889 0.0
Cu 12.9088 10.5608 6.4242 0.33078714 -0.67645947 0.36034033 0.0
Cu 10.0891 9.4756 8.3347 2.04166333 1.3388651 -0.45682048 0.0
Cu 5.708 12.4703 9.0785 -0.24431375 0.19819641 0.02552328 0.0
Cu 13.1408 11.1806 10.8128 0.584893 0.12260053 -0.26934807 0.0
Cu 5.1468 9.9883 10.2771 -0.30183429 0.19997855 1.0560872 0.0
Cu 7.1357 11.7176 10.8373 -0.16765511 -0.1371596 1.03963309 0.0
Cu 5.8167 10.9663 12.9009 -0.16770533 -0.4712297 -0.65424635 0.0
Cu 7.6632 12.4799 13.1206 -0.07277089 -0.61760861 0.0834524 0.0
Cu 9.1533 11.2874 9.6867 0.64951258 -0.10166055 -0.19949673 0.0
Cu 11.2383 9.9252 10.6161 -0.77222268 0.60197534 -0.17780641 0.0
Cu 9.2626 10.7218 12.2435 0.65414905 0.62176638 -0.4693432 0.0
Cu 11.4503 12.2692 12.4714 -0.20254298 -0.71795675 0.10794318 0.0
Cu 9.2966 13.2475 11.6324 0.2371785 -0.59830648 -0.89692132 0.0
Cu 12.4639 9.8282 12.8627 -0.40750807 0.4477036 -0.45446594 0.0
Cu 11.2934 12.5831 10.1754 -1.11006589 0.37030454 0.22579708 0.0
8
Lattice="4.525278753 0.0 0.0 -0.1026504197 4.534579342 0.0 0.02560733556 -0.1492283163 4.51089149" Properties=species:S:1:pos:R:3:forces:R:3:magmoms:R:1 energy=-28.78336599 stress="-0.06468123572933863 -0.0004615974733364428 0.0013982277427574857 -0.0004615974733364428 -0.06396269269540948 -0.000902714539223415 0.0013982277427574857 -0.000902714539223415 -0.06497110058192156" dipole="0.0 0.0 0.0" magmom=0.0 free_energy=-28.78334832 pbc="T T T"
Cu 0.04253824 2.67517912 3.95964988 -0.12790333 0.09764595 -0.06943978 0.0
Cu 3.47614977 0.60264165 2.82177691 -0.14780982 -0.16653286 -0.0762779 0.0
Cu 0.95011509 3.95277348 1.67884407 0.43738024 -7.7376E-4 -0.05676911 0.0
Cu 3.26603388 2.78251748 1.66796167 0.11973657 0.10592381 0.04826362 0.0
Cu 1.25183425 0.49030153 3.92039928 -0.07381114 -0.00652356 0.05228494 0.0
Cu 2.30294594 2.8316494 3.92264146 -0.18581295 -0.12560033 -0.06345874 0.0
Cu 1.03539111 1.69067198 1.65938719 0.18377075 -0.04256542 0.15738633 0.0
Cu 3.50135871 0.46886059 0.55565154 -0.20555032 0.13842616 0.00801064 0.0
36
Lattice="7.906222026 0.0 0.0 -4.040927454 6.700412467 0.0 0.1155681516 0.09346756687 8.312251984" Properties=species:S:1:pos:R:3:forces:R:3:magmoms:R:1 energy=-132.16262224 stress="0.018040703874188 -0.002258356109448979 0.005020874737257931 -0.002258356109448979 0.014567552226761343 0.0005274735875112328 0.005020874737257931 0.0005274735875112328 -0.013635737674845994" dipole="0.0 0.0 0.0" magmom=0.0 free_energy=-132.16394066 pbc="T T T"
Cu 0.02126491 1.35534033 1.06805357 9.2223E-4 0.31894676 -0.09323686 0.0
Cu 1.39870311 0.90900333 3.22855357 -0.49099748 -0.3741325 -0.58688602 0.0
Cu 2.57795311 1.41640033 1.12447357 0.39030609 -0.10121437 -0.74781727 0.0
Cu 3.95235311 0.84572933 3.12191357 0.60794118 -0.0982923 0.03085875 0.0
Cu 5.35835311 1.38915033 1.04762357 -0.09703678 0.34665194 -0.05666112 0.0
Cu 6.64339311 0.73905633 3.13507357 0.21393707 0.29478568 -0.52362598 0.0
Cu -0.00980869 3.05048033 3.14743357 0.11446038 0.13428186 -0.15595759 0.0
Cu 2.74155311 3.01226033 2.99855357 -0.3135753 0.56406139 0.77499648 0.0
Cu 5.27043311 3.05663033 3.06901357 0.24545134 -0.12801963 -0.12519114 0.0
Cu -0.02931589 1.53226033 5.15292357 0.69450623 0.4469732 0.37935845 0.0
Cu 1.47481311 0.80328133 7.27706357 -0.23847691 0.18468805 -0.11920382 0.0
Cu 2.69933311 1.70994033 5.10612357 -0.11644989 -0.55402289 0.79507774 0.0
Cu 4.09726311 0.74112933 7.30236357 -0.39415981 0.87220774 0.13082219 0.0
Cu 5.42058311 1.47781033 5.12457357 -0.87171752 0.51811053 0.20124345 0.0
Cu 6.68898311 0.84073733 7.14946357 0.03081697 0.0741598 0.96936293 0.0
Cu 0.01683281 3.13507033 7.44835357 0.14134413 -0.71100987 -0.94474332 0.0
Cu 2.75376311 3.07093033 7.27203357 -0.7208134 -0.39126004 -0.08191812 0.0
Cu 5.25466311 2.98788033 7.30767357 0.52463346 0.1620367 -0.10495013 0.0
Cu -1.24791689 3.75098033 1.05802357 -0.5461069 -0.09110833 0.36271338 0.0
Cu 1.35647311 3.63986033 1.10106357 -0.53044059 0.22040864 -0.20568626 0.0
Cu 3.80395311 3.78592033 0.91530457 1.08475663 -0.81158886 0.53738639 0.0
Cu -2.68708689 5.85068033 1.12981357 0.25663344 0.35389177 -0.69791384 0.0
Cu -1.29491689 5.43061033 3.13476357 0.05816335 -0.65958653 -0.10420327 0.0
Cu 0.01243401 5.94342033 1.02825357 -0.30109153 -0.04373885 0.42866792 0.0
Cu 1.35187311 5.37322033 3.12924357 -0.30704939 -0.62575868 0.07959206 0.0
Cu 2.67404311 5.84612033 0.90742757 -0.72327746 0.80569929 0.68610568 0.0
Cu 4.00394311 5.19954033 3.09561357 -0.42336203 0.28285041 0.34868837 0.0
Cu -1.34626689 3.84858033 5.10804357 0.10880015 -0.3776205 0.41195432 0.0
Cu 1.22902311 3.76550033 5.29469357 0.2642754 0.28214903 -0.3516569 0.0
Cu -2.65917689 6.02988033 5.14195357 -0.4164249 0.11780661 0.31597147 0.0
Cu -1.38161689 5.27232033 7.19938357 -0.32619353 -0.26848612 0.86374117 0.0
Cu -0.19602989 6.09984033 5.34232357 0.87407402 -0.06881889 -1.17235199 0.0
Cu 1.19410311 5.30226033 7.32461357 0.76559279 -0.29404078 -0.40687902 0.0
Cu 4.03445311 3.70566033 5.24438357 -0.09064165 0.51123256 -0.50579543 0.0
Cu 2.61477311 6.07789033 5.19949357 -0.1001013 -1.01983625 -0.17437035 0.0
Cu 3.86233311 5.29446033 7.18486357 0.63130148 0.12759343 -0.15749231 0.0
32
Lattice="8.395 0.0 0.0 0.0 8.395 0.0 0.0 0.0 8.395" Properties=species:S:1:pos:R:3:forces:R:3:magmoms:R:1 energy=-96.94145913 stress="0.04272064372392569 0.0043042849960927354 0.0009834959326851264 0.0043042849960927354 0.04469890258680775 0.005042819552544553 0.0009834959326851264 0.005042819552544553 0.059094641995664804" dipole="0.0 0.0 0.0" magmom=0.0 free_energy=-96.9425523 pbc="T T T"
Cu 5.35709 4.0998 3.59362 -1.24609994 0.36773095 -0.05046046 0.0
Cu 4.56512 2.10532 1.77163 -0.40369042 0.0993069 -0.39137343 0.0
Cu 7.16104 2.79042 2.86232 -0.14471366 -0.2018177 -0.1355369 0.0
Cu 0.241305 3.56077 0.910229 -1.15358676 0.40836364 0.30557738 0.0
Cu 7.22439 0.882115 1.42134 0.88787817 -0.20289054 -1.73110975 0.0
Cu 2.76753 0.331152 3.67983 -0.08032473 -0.10499381 -0.22142085 0.0
Cu 1.11998 2.92936 3.30035 0.08398369 -0.03916047 0.31096347 0.0
Cu 5.81515 0.648731 3.10045 -1.14286133 -0.42409293 1.44216533 0.0
Cu 1.96381 2.46962 8.31117 0.85447328 -0.86339321 -0.7832076 0.0
Cu 1.44161 1.68333 5.87075 -0.28501765 0.28240081 -0.75181741 0.0
Cu 5.50799 2.03116 5.35599 0.52780411 -0.16326498 -0.93960164 0.0
Cu 4.81159 2.40961 7.5415 -0.2690311 -0.87214869 1.4075969 0.0
Cu 0.362631 -0.0309585 7.34308 -0.08959117 0.6635936 0.53664374 0.0
Cu 7.86849 2.32118 7.0197 -0.31395205 -0.02239668 0.371209 0.0
Cu 3.40773 0.536204 6.11324 1.12080257 -0.47592434 0.50031032 0.0
Cu 7.81609 0.551049 4.42256 0.51683546 0.30061799 0.41815434 0.0
Cu 6.31127 0.253277 7.00833 -0.34286225 -0.02118049 -0.01962317 0.0
Cu 7.15678 5.79392 1.28131 3.39830226 -1.1616057 2.22309146 0.0
Cu 5.69054 6.6537 0.127688 -2.4202664 1.48947413 -1.71956388 0.0
Cu 5.46169 4.2207 0.93898 -0.10964553 -0.24903511 -0.16614276 0.0
Cu 5.33287 6.65317 2.67996 0.00280861 -0.22403411 -0.04596246 0.0
Cu 0.769663 5.59806 3.60166 1.86866355 0.4547057 -1.20288752 0.0
Cu 3.01253 6.39685 2.13265 -0.69557699 -0.07785573 0.79207376 0.0
Cu 0.502801 7.69971 2.43048 0.2151531 0.08596485 -0.05652355 0.0
Cu 3.58662 8.12635 0.651067 0.50340699 0.81036561 -0.23359381 0.0
Cu 0.82319 6.67497 5.8005 -0.23670877 1.21495427 -0.5881832 0.0
Cu 4.83654 6.57434 6.27136 0.02298886 1.15281384 -0.19192202 0.0
Cu 2.91594 5.53137 5.05965 0.57133692 0.29579954 -0.6249895 0.0
Cu 7.46612 4.62051 4.48139 -1.21654542 -0.7850969 1.2044776 0.0
Cu 7.22486 4.65006 7.0248 -0.62101218 0.55842198 0.67044933 0.0
Cu 4.77235 4.29524 6.22224 0.22077409 -0.1699157 -0.58699838 0.0
Cu 1.02471 4.46891 5.99019 -0.0237253 -2.12570671 0.25820567 0.0
32
Lattice="7.292000159 0.0 0.0 0.0 7.292000159 0.0 0.0 0.0 7.292000159" Properties=species:S:1:pos:R:3:forces:R:3:magmoms:R:1 energy=-118.69424032 stress="0.006618963123244696 -0.00032447488201420646 0.0008838122848734057 -0.00032447488201420646 0.006843755131394314 0.00022388305717561502 0.0008838122848734057 0.00022388305717561502 0.00485067674756074" dipole="0.0 0.0 0.0" magmom=0.0 free_energy=-118.69367158 pbc="T T T"
Cu 3.71211008 1.84591008 1.71951008 -0.11737393 0.04323205 0.55486001 0.0
Cu 5.56352008 3.63586008 1.86616008 -0.48150717 0.0612469 -0.0192304 0.0
Cu 1.83635008 0.05935348 1.84465008 0.0908352 -0.42106101 -0.25465565 0.0
Cu 7.31087008 1.87399008 1.83736008 -0.20783859 -0.21360352 -0.32228738 0.0
Cu 5.42158008 -0.08250362 1.85513008 0.03826129 0.5530684 -0.54601913 0.0
Cu 5.54343008 1.82365008 -0.04884682 -0.2259161 -0.11124256 0.35232254 0.0
Cu 1.80465008 3.65749008 1.83266008 0.1150627 0.0977154 0.02892796 0.0
Cu 7.38361008 3.57563008 3.67433008 -0.24725088 0.3748607 0.09108061 0.0
Cu 3.59596008 3.64604008 3.68507008 0.0628488 -0.0224013 -0.3728012 0.0
Cu -0.05998452 0.12470908 3.55315008 0.0807918 -0.57637907 0.50288597 0.0
Cu 1.81123008 1.69885008 3.68097008 0.42175461 0.66645856 -0.26173923 0.0
Cu 1.78596008 0.01585908 5.45279008 0.04161811 0.0347612 0.23520087 0.0
Cu 7.27874008 1.78695008 5.49497008 0.09283667 0.06096436 0.04312632 0.0
Cu 3.59582008 1.85543008 5.46876008 0.20969479 -0.36640027 0.05287141 0.0
Cu 5.39320008 1.83893008 3.72657008 0.19419457 0.04122871 -0.55811113 0.0
Cu 1.79762008 1.87156008 7.31690008 -0.23259992 -0.22753979 0.0166475 0.0
Cu 7.27949008 3.75001008 -0.00716439 -0.0042383 -0.36747861 0.0724751 0.0
Cu 3.52614008 7.35483008 -0.03578032 0.60017572 -0.35875628 0.09716297 0.0
Cu 3.65058008 5.35702008 1.77707008 -0.10498913 0.38774663 0.19303989 0.0
Cu -0.04793862 5.48963008 1.87836008 0.54512134 -0.21848979 0.06363476 0.0
Cu 3.64129008 3.63493008 -0.04466192 0.26973736 0.00594916 0.20695836 0.0
Cu 5.43525008 5.49356008 0.00108013 -0.1098279 -0.12360686 -0.17098739 0.0
Cu 1.87552008 5.60595008 3.70442008 -0.45550112 -0.67565387 -0.475123 0.0
Cu 5.53071008 5.53003008 3.70516008 -0.13215533 -0.65644676 -0.13588928 0.0
Cu 3.73047008 7.22278008 3.59914008 -0.44218282 0.44176075 0.18227327 0.0
Cu 3.64734008 5.43695008 5.43263008 0.19664204 0.22148609 0.19808765 0.0
Cu 5.44744008 7.31594008 5.46045008 0.07155962 -0.14695573 0.30660708 0.0
Cu 1.81933008 3.56833008 5.51583008 -0.17147121 0.33712511 -0.43361192 0.0
Cu 0.02211318 5.46381008 5.46140008 -0.1687661 0.10068913 -0.21561626 0.0
Cu 5.46422008 3.62221008 5.44592008 0.14530669 0.27805018 0.09720093 0.0
Cu 1.86317008 5.44329008 7.15700008 -0.06608764 0.10331173 0.75925702 0.0
Cu 7.30419008 7.15505008 7.36901008 -0.00873517 0.67636035 -0.28854823 0.0
32
Lattice="6.806835529 0.0 0.0 0.0 6.806835529 0.0 0.0 0.0 6.806835529" Properties=species:S:1:pos:R:3:forces:R:3:magmoms:R:1 energy=-105.05530746 stress="-0.35242297876501383 0.009421779031117418 -0.018222503606014424 0.009421779031117418 -0.35908629581221263 0.0021621447379941696 -0.018222503606014424 0.0021621447379941696 -0.28306209335619337" dipole="0.0 0.0 0.0" magmom=0.0 free_energy=-105.05494207 pbc="T T T"
Cu 5.10582262 5.26421041 4.58114401 0.04703403 -0.00234366 -0.0332757 0.0
Cu 5.80811331 2.98012282 4.7651563 -0.09270167 -0.14458931 -0.04247004 0.0
Cu 2.69314878 5.14885053 5.11264887 -0.08992156 -0.01753381 -0.15518895 0.0
Cu 5.01557684 1.88100391 6.60680848 -0.04736372 -0.04982826 -0.06099877 0.0
Cu 3.08194465 5.78581851 0.56042014 0.01279997 0.0989846 0.09519586 0.0
Cu 3.37857342 2.73531337 1.40853977 -0.04807107 0.042229 0.08272748 0.0
Cu 5.40211991 5.97978707 0.11852445 0.0170821 -0.11202431 0.0788666 0.0
Cu 6.63349218 0.95466199 1.03506632 0.13869742 0.0734632 0.00292446 0.0
Cu 2.8814141 2.21250047 5.82823391 -0.06126588 -0.07405824 0.0620569 0.0
Cu 3.5269924 6.23039181 3.2478697 -0.06720766 0.12221384 -0.01186103 0.0
Cu 1.19782442 6.18626672 3.73774877 -0.03651321 0.06536403 -0.02513333 0.0
Cu 3.81269031 3.55603797 3.82811359 0.08845033 -0.07085881 0.03171102 0.0
Cu 6.23280041 3.68939028 0.62939638 -0.00296311 0.01298809 0.00567652 0.0
Cu 0.52171142 1.50982663 3.6212988 0.05386199 0.08204405 0.09514666 0.0
Cu 1.96984785 0.60235826 1.7331171 -0.01992246 0.09291992 -0.25457214 0.0
Cu 1.55699661 0.16728766 6.09336345 -0.02023685 0.00212355 -0.05701057 0.0
Cu 4.25789881 0.64731631 1.5041029 -0.1531378 -0.02881655 -0.07423049 0.0
Cu 4.64997827 4.70376274 1.95195928 0.00400164 -0.01741744 -0.03017538 0.0
Cu 2.25611025 4.57240117 2.41312745 0.05634771 -0.03720338 0.14269137 0.0
Cu 2.92737942 1.54688527 3.57985817 -0.00798311 -0.02231175 0.1054771 0.0
Cu 3.88232261 0.26465718 5.42401767 -0.07375557 0.12476846 -0.03745581 0.0
Cu 1.85277514 3.95572618 0.09794046 -0.05187009 -3.1121E-4 -0.03027816 0.0
Cu 4.24145915 4.01333993 6.34701324 0.03659997 0.10944026 0.04462833 0.0
Cu 5.41462903 2.35166241 2.52422974 0.00484873 -0.04912499 0.21884412 0.0
Cu 0.28891836 4.9678261 5.58300837 0.00375399 -0.05266993 0.01913369 0.0
Cu 1.49995352 3.40142658 4.3148141 0.1015887 -0.05979422 -0.01170508 0.0
Cu 6.65625075 4.34940674 3.03720811 -0.02677887 -0.05071712 0.02873252 0.0
Cu 5.86629688 6.62427975 2.87880459 0.01780491 0.04826273 0.03135564 0.0
Cu 1.08566422 2.71443831 1.85885856 0.07078968 0.00233468 -0.08204177 0.0
Cu 0.61671422 5.61899905 1.19193526 -0.01349343 -0.08235313 2.824E-5 0.0
Cu 0.61376034 2.21736422 6.12534908 0.19693216 -0.01873182 -0.03555094 0.0
Cu 6.1948924 0.43757795 5.19086208 -0.03740725 0.01355153 -0.10324834 0.0
6
Lattice="4.421369714 0.0 0.0 2.182954203 3.833714848 0.0 -1.462870529 -0.0530543056 4.1792177" Properties=species:S:1:pos:R:3:forces:R:3:magmoms:R:1 energy=-22.35558822 stress="-0.009272740194262608 -0.00013992494153863017 0.0006445519155586969 -0.00013992494153863017 -0.010716604072918452 -0.0011340778828071638 0.0006445519155586969 -0.0011340778828071638 -0.009570223788650606" dipole="0.0 0.0 0.0" magmom=0.0 free_energy=-22.35554264 pbc="T T T"
Cu 3.7713596 1.52561018 2.23993839 -0.11607249 -0.03854488 0.08578484 0.0
Cu 1.54331333 2.80813518 2.25487744 -0.07693078 -0.07068755 0.00500138 0.0
Cu 4.46192301 0.22723595 0.16285102 0.0193711 0.08440981 0.03420104 0.0
Cu 1.56074425 0.25495633 2.27748362 -0.05262939 -0.10004262 -0.10015225 0.0
Cu 2.21909591 1.51076725 0.1800602 0.14680078 0.04260299 -0.05853911 0.0
Cu 4.43168319 2.78423347 0.16026677 0.07946079 0.08226225 0.0337041 0.0
43
Lattice="19.2 0.0 0.0 0.0 19.2 0.0 0.0 0.0 19.2" Properties=species:S:1:pos:R:3:forces:R:3:magmoms:R:1 energy=-119.47245891 stress="0.0009374077430053086 -0.00022892202097972347 0.0011445461356715861 -0.00022892202097972347 -0.0002824880441545887 -0.000903907672349428 0.0011445461356715861 -0.000903907672349428 0.0008244488733960186" dipole="0.0 0.0 0.0" magmom=0.0 free_energy=-119.47322551 pbc="T T T"
Cu 8.19851 6.2315 5.46121 0.16025641 -2.49868373 -0.99202478 0.0
Cu 9.61129 5.62746 7.68385 0.38688146 0.21124926 -0.10440581 0.0
Cu 7.31698 6.49637 7.62127 0.16245997 -0.06589431 0.92493697 0.0
Cu 6.52676 8.77191 8.16429 0.36991697 -0.09176873 0.47741234 0.0
Cu 13.5798 9.24031 6.95017 1.5773205 -1.42462097 -2.47269258 0.0
Cu 9.12603 7.57423 8.96598 -0.02487237 -0.08669193 0.57826729 0.0
Cu 7.1254 8.04831 5.921 -0.84271861 1.85795558 -0.02860108 0.0
Cu 9.55442 7.70232 6.33643 1.02166682 1.29913238 1.04586648 0.0
Cu 11.5795 7.57006 8.21072 -0.52331994 -0.02862486 -0.23626688 0.0
Cu 11.3235 9.58359 6.12667 -0.22864048 0.12857993 0.27058486 0.0
Cu 9.72952 7.40579 14.2038 -0.71513434 -0.85751347 -0.86541921 0.0
Cu 9.08258 9.2572 12.3629 0.68670235 -0.78577556 -0.23011743 0.0
Cu 7.34925 9.36556 13.9711 0.09146519 -0.15947774 -0.23193299 0.0
Cu 7.66193 7.12119 12.8482 0.32752488 0.02872837 0.88503528 0.0
Cu 5.75615 8.63039 12.1311 -0.17677537 0.14728099 0.10123037 0.0
Cu 12.6722 7.27914 11.2219 1.13204703 -0.17023774 -1.00795676 0.0
Cu 7.49696 7.88138 10.7432 0.12618713 0.66227417 -1.54136677 0.0
Cu 10.0053 7.15868 11.4959 -1.87364561 -1.99518893 -0.24016056 0.0
Cu 11.0538 8.83119 10.4471 0.09131288 1.76354486 -1.81143961 0.0
Cu 11.4597 8.38192 12.6517 0.44131786 1.95364157 2.59469728 0.0
Cu 11.4602 5.74458 9.97727 -0.8348446 0.30818441 -0.66534626 0.0
Cu 8.75487 12.1472 8.06278 -0.07599282 0.21855586 0.20606512 0.0
Cu 6.64986 11.1011 7.46862 -0.16290417 -0.91598389 0.31535259 0.0
Cu 12.4502 9.80105 8.56875 -1.37550438 1.291685 2.55756846 0.0
Cu 13.0693 12.0948 9.08877 -0.54436541 -0.11526376 -0.09839898 0.0
Cu 10.8924 11.9682 7.16357 0.00262576 -0.44400855 0.48807348 0.0
Cu 6.66776 13.3799 7.59357 0.34721207 0.6495734 0.53471126 0.0
Cu 14.8951 10.6216 8.35539 -0.57550304 0.20573562 0.15743255 0.0
Cu 8.51556 10.0159 6.23433 0.30432617 0.20492046 0.43764118 0.0
Cu 10.9064 13.5373 9.25274 -0.13450103 0.72708953 -0.38728022 0.0
Cu 13.0604 11.54 6.56892 0.62330135 -0.41360772 0.43282677 0.0
Cu 9.96535 9.65341 8.10055 0.30671016 0.18772733 -0.07341858 0.0
Cu 8.02461 10.2165 9.4677 0.60361075 -0.99386988 -0.17508051 0.0
Cu 9.09588 12.4471 11.2268 -0.26227048 -0.41004937 -0.05769622 0.0
Cu 10.9389 10.9835 12.0083 0.23511964 -0.63371298 0.36080555 0.0
Cu 6.94311 12.266 9.80575 -0.12413554 0.73586198 -0.02291416 0.0
Cu 7.15758 10.5196 11.6446 0.31408001 0.53394355 1.0465343 0.0
Cu 8.49149 14.072 9.68923 0.01413657 0.18741407 -0.79057323 0.0
Cu 13.2742 9.9325 11.3752 -0.95747724 -0.42914022 -0.71908801 0.0
Cu 8.84462 11.3386 13.3257 0.03951288 0.0389917 0.40955858 0.0
Cu 5.53333 10.4112 10.0428 -0.2377148 -1.01713473 -0.64424028 0.0
Cu 10.4187 9.45358 14.5911 -0.00501703 1.59717728 -0.33525848 0.0
Cu 10.5807 11.3959 9.6691 0.30964244 -1.40199823 -0.09292132 0.0
6
Lattice="4.377445554 0.0 0.0 2.014275802 3.696437716 0.0 -0.07276455957 -0.1213049562 4.09947371" Properties=species:S:1:pos:R:3:forces:R:3:magmoms:R:1 energy=-22.01795332 stress="-0.08365960308612688 -0.0017575628201302487 -0.002465035570190739 -0.0017575628201302487 -0.08406442169449987 -0.002753749438558778 -0.002465035570190739 -0.002753749438558778 -0.08320651144156303" dipole="0.0 0.0 0.0" magmom=0.0 free_energy=-22.01803153 pbc="T T T"
Cu 2.10765187 2.40513352 2.792095 -0.05259568 -0.17837891 -0.16721169 0.0
Cu 1.37307544 1.04847236 0.72881257 0.03655673 -0.13548214 -0.07483878 0.0
Cu 5.62594097 3.49119962 0.72205392 0.10438572 0.11134721 0.02775155 0.0
Cu 2.2114599 -0.05707613 2.74723507 0.03475795 -0.20206513 0.20031244 0.0
Cu 4.35770302 1.1540594 2.77430528 -0.09037362 0.00888399 -0.01167341 0.0
Cu 3.51190564 2.23319857 0.7300175 -0.0327311 0.39569499 0.02565988 0.0
32
Lattice="7.270077563 0.0 0.0 0.0 7.270077563 0.0 0.0 0.0 7.270077563" Properties=species:S:1:pos:R:3:forces:R:3:magmoms:R:1 energy=-119.0530226 stress="0.0021513857119441 -0.00017517392674214712 0.00010735812005177901 -0.00017517392674214712 0.0016192525382779572 0.0007329344747357832 0.00010735812005177901 0.0007329344747357832 0.0010382374442397056" dipole="0.0 0.0 0.0" magmom=0.0 free_energy=-119.0523237 pbc="T T T"
Cu 3.63152878 1.86735878 1.79259878 -0.14869593 -0.14071462 0.09220765 0.0
Cu 1.81788878 1.85866878 -0.03756562 0.00909373 -0.10109895 0.2796801 0.0
Cu 1.86640878 -0.06819922 1.82060878 -0.35044442 0.32074822 0.06510009 0.0
Cu 0.01786858 1.77723878 1.84599878 0.0652198 0.24916155 -0.10814828 0.0
Cu 5.38245878 0.04659938 1.80648878 0.51249021 -0.218551 0.02666118 0.0
Cu 5.40906878 1.73425878 -0.03370132 0.27821078 0.37377189 0.27411138 0.0
Cu 7.24905878 3.57016878 0.01739648 -0.002144 0.08654012 0.17779978 0.0
Cu 5.40215878 3.62296878 1.83482878 0.33358062 0.17085719 -0.20262242 0.0
Cu 7.23813878 -0.02104991 3.58645878 0.09837583 0.08225091 0.26925392 0.0
Cu 3.61822878 3.69759878 3.67640878 0.13713885 -0.10698458 -0.01057398 0.0
Cu 1.89869878 1.82832878 3.61924878 -0.38589379 -0.09388908 0.05828 0.0
Cu 5.44498878 1.92240878 3.63873878 -0.04773301 -0.51056799 -0.10508942 0.0
Cu 5.49723878 3.62386878 5.49044878 -0.20298841 0.09053087 -0.17681672 0.0
Cu 1.78047878 3.64313878 5.46943878 0.07337558 -0.35370892 -0.15037136 0.0
Cu 1.86862878 0.05111128 5.44703878 -0.30443628 -0.22926805 -0.11413119 0.0
Cu 7.19070878 1.77624878 5.41595878 0.51263588 0.00932943 0.0450869 0.0
Cu 3.68537878 8.7618E-4 3.59545878 -0.26032371 -0.03661767 0.28975469 0.0
Cu 7.30356878 3.63928878 3.61844878 -0.14336095 -0.1313776 -0.00700399 0.0
Cu 5.40371878 -0.02067283 5.45761878 0.19352993 -0.0484256 -0.14470382 0.0
Cu 3.67876878 1.83144878 5.44664878 -0.24328736 0.02396086 -0.0385014 0.0