32
Lattice="6.935 0.0 0.0 0.0 6.935 0.0 0.0 0.0 6.935" Properties=species:S:1:pos:R:3:forces:R:3:magmoms:R:1 energy=-114.29489794 stress="-0.18146758666646 0.0012760947347859339 -0.0014244386108071216 0.0012760947347859339 -0.1811401546448031 -0.0003101314696203062 -0.0014244386108071216 -0.0003101314696203062 -0.1799741540080773" dipole="0.0 0.0 0.0" magmom=0.0 free_energy=-114.29403426 pbc="T T T"
Cu 3.43787 1.67975 1.73143 0.33187103 0.58267382 0.37458733 0.0
Cu 5.16678 3.49614 1.78016 0.12812373 -0.24122261 -0.82280095 0.0
Cu 5.29363 -0.0655478 1.81205 -1.47613613 0.28896768 -0.7563985 0.0
Cu 0.012774 1.62897 1.68706 0.05330898 1.01400228 0.25932795 0.0
Cu 5.11592 1.82841 0.0474187 0.78839719 -1.19028991 -0.12616703 0.0
Cu 3.45823 3.38756 3.50305 -0.36908737 1.31487112 -0.75243286 0.0
Cu 3.47971 1.74924 5.14654 -0.41508187 -0.15282352 0.79607892 0.0
Cu 1.75139 1.74999 3.49909 -0.46431308 -0.15711775 -0.44311626 0.0
Cu 5.13407 1.72669 3.39586 0.73642017 -0.28629099 0.41264753 0.0
Cu 6.91843 1.69666 5.17204 0.07316632 0.64809703 0.26454704 0.0
Cu 3.49524 -0.0390393 3.53381 -0.02311588 -0.26261518 -0.50794347 0.0
Cu 1.70859 3.5577 5.14546 -0.20343113 -0.71755257 0.10862694 0.0
Cu 5.14993 3.47135 5.18507 0.8226675 -0.29475745 0.2681564 0.0
Cu 1.79292 1.7639 6.99098 -0.65678495 0.19080303 -0.89841361 0.0
Cu -0.0279912 3.39857 6.90348 0.15275666 0.64502333 0.2187069 0.0
Cu 3.40636 5.14425 1.71159 0.78771761 0.2356788 0.42568273 0.0
Cu 1.82498 5.20403 -0.0936903 -1.13806032 -0.26590263 0.83176431 0.0
Cu 1.64943 3.50729 1.70724 0.46082942 -0.55112992 0.21737855 0.0
Cu 0.0706203 5.2782 1.75436 -0.28272528 -0.74236885 -0.81768557 0.0
Cu 3.48666 3.45631 -0.0394978 -0.55201694 0.21474578 0.45570554 0.0
Cu 5.19643 5.22153 0.0800723 0.20527635 -0.05830942 -0.35865009 0.0
Cu 3.42155 6.97015 -0.0170233 1.18268923 -0.20313063 0.24025719 0.0
Cu 1.84484 6.91248 1.72569 -0.87888217 0.23120969 0.09405663 0.0
Cu 6.82688 3.43605 3.41162 1.45357825 -0.36854885 0.48977468 0.0
Cu 1.71964 5.2439 3.40141 0.16694705 -0.42046034 1.26487635 0.0
Cu 0.0224033 6.98435 3.44238 0.14060076 -0.38299366 0.88572657 0.0
Cu 5.18024 7.01147 5.24752 0.3489029 -0.57799661 -0.1725286 0.0
Cu 1.75013 6.95805 5.26266 -0.21248365 -0.09996674 -0.93935045 0.0
Cu 3.53918 5.19889 5.25147 -0.15525835 0.21141796 -0.87611877 0.0
Cu -0.0484114 5.21718 5.25033 0.2180888 0.03416735 -0.37637183 0.0
Cu 5.28062 5.11067 3.47829 -1.01182706 1.35511679 0.11025287 0.0
Cu 6.96595 6.94483 6.91707 -0.21213776 0.00670297 0.12982357 0.0
7
Lattice="4.452176554 0.0 0.0 0.7357086242 4.383946064 0.0 0.730977822 -0.9034638623 4.308200908" Properties=species:S:1:pos:R:3:forces:R:3:magmoms:R:1 energy=-26.09220124 stress="0.009325512671967209 -2.215667083088172e-06 -0.0002891801777563424 -2.215667083088172e-06 0.008808238515522347 -0.0016502109727951414 -0.0002891801777563424 -0.0016502109727951414 0.009509477308682996" dipole="0.0 0.0 0.0" magmom=0.0 free_energy=-26.09142985 pbc="T T T"
Cu 1.40351114 2.93720866 0.90836928 -0.10500035 -0.09526544 -0.13545872 0.0
Cu 3.62708007 3.28860739 2.10667555 -0.11745302 -0.01338184 -0.00741873 0.0
Cu 2.07794087 1.24014383 2.71274807 0.13917629 0.13653486 0.07715928 0.0
Cu 4.31392168 1.64339724 3.94086833 0.09359129 -0.01837254 0.04555945 0.0
Cu 2.12518904 0.55961153 0.25189408 -0.00985044 -0.09113604 0.04208764 0.0
Cu 1.38074793 3.60587724 3.3629507 -0.05119341 0.18954036 -0.08658039 0.0
Cu 4.33092122 0.93352001 1.47856426 0.05072965 -0.10791936 0.06465147 0.0
32
Lattice="7.29578099 0.0 0.0 0.0 7.29578099 0.0 0.0 0.0 7.29578099" Properties=species:S:1:pos:R:3:forces:R:3:magmoms:R:1 energy=-118.94363908 stress="0.008175548001355533 0.00029312456186353564 -0.0006894601416967574 0.00029312456186353564 0.008576235810468269 -0.00027121668382792073 -0.0006894601416967574 -0.00027121668382792073 0.008318047128502952" dipole="0.0 0.0 0.0" magmom=0.0 free_energy=-118.94265277 pbc="T T T"
Cu 3.5783005 1.88017049 1.80746049 0.36047873 -0.30928311 -0.07862278 0.0
Cu 3.6881005 0.01069619 -0.02095921 -0.3567154 0.30523135 0.02452151 0.0
Cu 5.5419505 1.7359005 0.05422189 -0.48028191 0.36103127 -0.25275772 0.0
Cu -0.01952431 1.72368049 1.8072805 0.22047282 0.64063546 0.17880966 0.0
Cu 5.4691705 1.82125049 3.6094805 0.04116372 0.03563505 0.11564484 0.0
Cu 7.2556705 3.64633049 3.59364049 0.14895907 -0.21182473 0.1441283 0.0
Cu 0.00907069 -0.01971671 3.6014805 -0.06485477 0.01023326 0.37771505 0.0
Cu 1.83810049 1.8099905 3.6052005 -0.19222394 0.28794498 0.26656195 0.0
Cu 1.78963049 0.01116259 5.44119049 0.27045627 -0.1721166 0.07712576 0.0
Cu 7.35596049 1.7886005 5.5057005 -0.33407216 0.13741841 -0.2684975 0.0
Cu 3.6777305 1.8696105 5.39441049 -0.1416021 -0.10644706 0.36412985 0.0
Cu 5.5441305 3.57547049 5.5051605 -0.17617663 0.18469187 -0.13248083 0.0
Cu 1.84406049 1.8414305 7.24381049 -0.01612416 -0.07694581 0.27756673 0.0
Cu 5.39457049 7.2703105 1.9046805 0.11408331 0.13151123 -0.17573904 0.0
Cu 1.86549049 7.31115049 1.8449305 -0.03930155 -0.17045075 -0.1692388 0.0
Cu 1.8199205 3.6962605 1.7928305 -0.1811042 -0.22302672 -0.12021339 0.0
Cu 7.2613805 5.49262049 1.8533305 0.15594135 -0.10021284 -0.17847338 0.0
Cu 7.3003205 7.2749405 0.07290619 0.29172909 -0.00952553 -0.3219143 0.0
Cu 3.6191005 5.50332049 1.8190005 0.04287247 -0.07677092 -0.03826085 0.0
Cu 5.38725049 3.6876505 1.74899049 0.38809422 -0.16600789 0.27798792 0.0
Cu 1.8076505 5.3963205 3.63012049 0.07105237 0.32236418 0.3027671 0.0
Cu 3.7462205 5.43861049 5.55819049 -0.45106352 -0.00247285 -0.66723384 0.0
Cu 5.48258049 7.2698705 5.4841405 0.16673742 0.4070005 -0.33967569 0.0
Cu 1.76953049 3.69567049 5.54911049 0.20160425 -0.22520215 -0.47684608 0.0
Cu -0.00706512 5.48270049 5.5111405 -0.00435692 -0.02962742 -0.27622664 0.0
Cu 3.65582049 3.6585605 3.58457049 -0.08789465 0.01760995 0.44886322 0.0
Cu 5.4536105 5.43017049 3.6542205 0.06694855 0.06234319 0.13153071 0.0
Cu 3.6378105 7.2531905 3.71905049 -0.04289862 0.05874703 -0.14232306 0.0
Cu 7.22326049 3.68380049 7.35415049 0.36057967 -0.13348939 -0.05629591 0.0
Cu 1.87569049 5.5162505 7.2421905 -0.29124081 -0.01550161 0.36299323 0.0
Cu 3.67318049 3.6763705 7.27033049 -0.04212989 -0.27714497 0.01570998 0.0
Cu 5.48959049 5.5959505 7.28630049 8.6791E-4 -0.65634737 0.32874401 0.0
19
Lattice="19.2 0.0 0.0 0.0 19.2 0.0 0.0 0.0 19.2" Properties=species:S:1:pos:R:3:forces:R:3:magmoms:R:1 energy=-49.04863156 stress="-0.00030231376722882715 -0.0002140912528287468 0.0006401237395961383 -0.0002140912528287468 0.00025038785661451595 0.00046731457710707847 0.0006401237395961383 0.00046731457710707847 -0.00035976215887621076" dipole="0.0 0.0 0.0" magmom=0.0 free_energy=-49.05803275 pbc="T T T"
Cu 7.8771 7.7977 7.4651 -0.45404367 0.15370129 -0.17544648 0.0
Cu 9.6585 8.976 6.7086 0.58264849 1.6289738 -0.51619509 0.0
Cu 10.2409 7.3904 8.1294 0.49377915 -1.28672329 0.89029861 0.0
Cu 7.0041 9.3922 9.0959 0.09261708 -0.27512302 1.13852104 0.0
Cu 8.9327 8.4219 11.6861 -1.26051457 -0.67687617 1.23845287 0.0
Cu 10.3903 6.7433 10.7185 -0.65396566 -0.09361641 -0.25857537 0.0
Cu 11.1522 8.6867 12.1159 0.44088436 -0.11534928 0.4472083 0.0
Cu 12.06 8.1437 10.0449 0.54251306 0.95937382 -1.09994743 0.0
Cu 9.7073 8.9869 9.6957 0.53133908 1.4367131 -0.94686915 0.0
Cu 8.1031 7.2041 9.6666 0.13185277 -0.22024811 0.57082977 0.0
Cu 8.0383 10.6232 7.5108 -0.25023227 0.16782683 -0.50388561 0.0
Cu 10.1402 11.1971 8.1152 0.30958241 -0.81257968 -0.94230338 0.0
Cu 8.7363 13.0821 8.0375 0.10197549 -0.17127431 0.10088728 0.0
Cu 12.3025 10.523 8.6689 -0.24411396 -0.42622545 0.44486837 0.0
Cu 8.1064 11.6812 9.8262 0.36186058 0.03264912 -0.80913341 0.0
Cu 9.8068 10.6541 12.2937 0.01961445 0.25045939 -0.80374299 0.0
Cu 12.0954 10.5838 11.0708 -0.19761143 -0.31192784 -0.21507686 0.0
Cu 7.5603 10.2646 11.4268 -0.60868953 -0.49534707 0.542779 0.0
Cu 10.4876 12.0482 10.1236 0.06050416 0.25559327 0.89733055 0.0
32
Lattice="7.013025632 0.0 0.0 0.0 7.013025632 0.0 0.0 0.0 7.013025632" Properties=species:S:1:pos:R:3:forces:R:3:magmoms:R:1 energy=-115.83928425 stress="-0.1315648457563612 0.00028657959680546103 0.0011772953340550955 0.00028657959680546103 -0.13064771801218883 -0.00042680821897061105 0.0011772953340550955 -0.00042680821897061105 -0.12921784834597433" dipole="0.0 0.0 0.0" magmom=0.0 free_energy=-115.84142367 pbc="T T T"
Cu 1.86901282 3.49418282 1.61861282 -1.39911297 0.12012234 1.24835771 0.0
Cu 1.80335282 1.72863282 -0.04467648 -0.31325279 -0.46156676 0.11813495 0.0
Cu 3.51620282 1.83924282 1.75533282 -0.39303634 -0.5178134 0.0369327 0.0
Cu -0.08413218 1.77962282 1.82243282 1.15100266 -0.27859098 -0.37602611 0.0
Cu 5.25454282 1.72939282 0.04324582 0.29495865 0.46089146 -0.37373324 0.0
Cu 1.79917282 1.70769282 3.62406282 -0.53966448 0.50634328 -1.21589083 0.0
Cu 3.57092282 3.50944282 3.53526282 -0.5511649 0.2975653 0.12040407 0.0
Cu 5.23969282 1.73755282 3.47032282 -0.0708719 0.09988327 0.57334027 0.0
Cu 6.95297282 -0.02051018 3.51155282 0.51379123 0.13263732 0.33650915 0.0
Cu 1.74139282 3.39301282 5.29240282 0.42531464 1.15540986 -0.37153343 0.0
Cu 3.56571282 1.72927282 5.20296282 0.05890935 0.07689653 0.5171504 0.0
Cu -0.03692718 1.75953282 5.16209282 0.22538248 -0.37592767 0.68070061 0.0
Cu 3.45443282 2.9082E-4 3.45875282 0.57691167 -0.11835326 0.41881532 0.0
Cu -0.02663918 3.53491282 3.55794282 0.36950516 0.25404549 -0.73623516 0.0
Cu 5.33208282 0.02185182 5.33674282 -0.61845483 -0.50728365 -0.75849194 0.0
Cu 0.05013782 0.01402982 6.93619282 -0.09276416 0.33607932 0.77289898 0.0
Cu 3.54777282 3.52591282 6.97838282 -0.17267897 -0.31087303 -0.26499363 0.0
Cu 7.04662282 3.39178282 -0.02662718 -0.34882168 0.49180513 0.85039395 0.0
Cu 1.70195282 5.25685282 -0.03894418 0.60222773 0.00943267 0.51250832 0.0
Cu 3.48851282 5.25436282 1.74767282 -0.57927689 0.13725505 -0.03803246 0.0
Cu -0.00992618 5.40646282 1.78202282 0.14013923 -1.14859022 -0.71907641 0.0
Cu 5.25603282 3.51532282 1.78350282 0.39275882 0.26223221 -0.29182021 0.0
Cu 5.11057282 7.07470282 1.76065282 1.09743478 -0.29688644 -0.36475046 0.0
Cu 1.74363282 7.06121282 1.79157282 0.01707983 0.0871684 -0.5038782 0.0
Cu 1.75855282 5.23453282 3.50556282 -0.23098399 -0.64217718 -0.18651731 0.0
Cu 5.23720282 5.33822282 3.39894282 0.02851354 -0.50719407 1.1811396 0.0
Cu 3.53705282 5.28697282 5.27849282 0.29442204 -0.45648696 -0.31658669 0.0
Cu 1.82180282 6.86075282 5.18280282 -0.90103881 1.12485113 0.65258194 0.0
Cu 5.29721282 3.52529282 5.31268282 -0.54100222 -0.16669027 -0.4052772 0.0
Cu 6.95752282 5.17559282 5.39017282 0.16127194 0.57226448 -0.99844064 0.0
Cu 5.15842282 5.25795282 7.10971282 1.16312965 0.24593257 -0.41490666 0.0
Cu 3.54051282 7.08432282 6.96857282 -0.76062846 -0.58238191 0.31632262 0.0
4
Lattice="4.937313646 0.0 0.0 0.6238806329 4.183797466 0.0 -0.7194119063 0.08440721544 2.499544548" Properties=species:S:1:pos:R:3:forces:R:3:magmoms:R:1 energy=-14.57682808 stress="0.03369278024606662 -0.0012604827731112528 -0.0023303172768403936 -0.0012604827731112528 0.025297665702899763 -0.0011512176161196422 -0.0023303172768403936 -0.0011512176161196422 0.03601656703815011" dipole="0.0 0.0 0.0" magmom=0.0 free_energy=-14.57682969 pbc="T T T"
Cu 1.50943809 2.46973543 0.97759005 -0.00130734 -0.00326711 -0.06767307 0.0
Cu 2.6888501 0.09190271 1.36423141 -1.5778E-4 0.00373365 0.06450212 0.0
Cu 3.98705439 2.04747781 0.33480573 0.10991804 0.06479998 -0.0646401 0.0
Cu 0.21126234 0.51448957 2.00568192 -0.10845292 -0.06526652 0.06781105 0.0
5
Lattice="2.411010918 0.0 0.0 2.829086357E-4 4.09090875 0.0 -0.02620307521 -2.01776675 5.591346837" Properties=species:S:1:pos:R:3:forces:R:3:magmoms:R:1 energy=-17.9675857 stress="-0.12318378779703637 -3.7691225309383816e-05 0.0008591250753070533 -3.7691225309383816e-05 -0.11350184676218689 0.0018743966807482702 0.0008591250753070533 0.0018743966807482702 -0.11413949870813146" dipole="0.0 0.0 0.0" magmom=0.0 free_energy=-17.9676024 pbc="T T T"
Cu 2.08660322 -0.83118394 4.26741467 0.00143473 0.03798349 -0.08701527 0.0
Cu 0.89292636 1.22118282 5.11801389 0.01111791 0.03658089 0.17793819 0.0
Cu 2.12973354 3.26271089 1.73050233 0.00408478 -0.03763634 0.08460938 0.0
Cu 2.11656527 1.21502218 2.99880364 -0.00330551 0.00754983 0.00102942 0.0
Cu 0.91870457 1.21177954 0.87964941 -0.01333191 -0.04447788 -0.17656173 0.0
43
Lattice="19.2 0.0 0.0 0.0 19.2 0.0 0.0 0.0 19.2" Properties=species:S:1:pos:R:3:forces:R:3:magmoms:R:1 energy=-123.88175276 stress="0.0006680925349325881 0.001116728753105021 -0.0007276426986045308 0.001116728753105021 0.0007083341781840087 0.00034147353225440354 -0.0007276426986045308 0.00034147353225440354 0.0008147853944767787" dipole="0.0 0.0 0.0" magmom=0.0 free_energy=-123.88526327 pbc="T T T"
Cu 9.14377 6.37913 6.57482 0.06155315 0.23584303 0.41148581 0.0
Cu 7.33094 6.4489 8.50068 0.0857284 0.31499035 0.05714867 0.0
Cu 9.59433 8.74219 5.73741 1.1042066 0.22484146 0.05470125 0.0
Cu 8.90438 8.40948 8.0827 1.35039611 -0.799726 -0.39249477 0.0
Cu 7.42318 8.04679 6.189 -0.82087861 -0.50436724 0.29675161 0.0
Cu 6.79675 8.96693 8.88457 -1.06148655 0.10240722 0.55368861 0.0
Cu 12.944 8.9046 8.32216 0.8684053 -0.4195895 0.97239253 0.0
Cu 11.4202 7.1437 7.39425 -0.61808609 0.28505864 0.4327033 0.0
Cu 9.67709 6.10527 9.02052 0.70451605 0.06673571 0.10329727 0.0
Cu 12.053 9.21473 6.28946 -0.54083699 0.25003204 -1.05538233 0.0
Cu 6.31226 7.02282 10.8699 -0.13401084 0.25250395 -0.47377237 0.0
Cu 7.99953 6.8114 12.6465 0.33455495 0.78415034 0.24580895 0.0
Cu 11.1458 8.05038 9.95935 -0.85350367 0.60591509 0.09879942 0.0
Cu 7.96339 5.39508 10.7864 0.51149134 -0.24345561 -0.46059945 0.0
Cu 7.71837 9.17167 13.727 -0.01477182 0.10375835 -0.60640394 0.0
Cu 8.53522 7.86072 10.3275 0.61440919 -0.74039631 0.82824087 0.0
Cu 9.90369 8.6127 12.7678 0.06987566 -1.81954327 -0.6524357 0.0
Cu 12.3042 7.38626 12.0727 -0.63260079 -0.11890944 0.51751176 0.0
Cu 10.2494 6.21393 11.7062 -0.39340043 0.42581414 -0.70292083 0.0
Cu 13.4888 8.65722 10.6459 0.2820476 0.55528553 -0.21858271 0.0
Cu 7.75283 9.85656 11.2557 -0.00982618 -1.09618572 1.13997013 0.0
Cu 12.3782 6.27753 9.59162 0.40567561 -0.45782404 0.08197055 0.0
Cu 5.40871 9.14851 11.1974 0.20406349 0.62177696 -0.05767369 0.0
Cu 8.4801 10.6861 8.96917 0.64002915 0.65094115 1.48917537 0.0
Cu 7.99768 10.2376 6.87457 0.02554117 0.27774716 -1.8473688 0.0
Cu 10.4694 12.2235 9.11369 0.21988104 0.79770403 0.47512726 0.0
Cu 6.87548 12.0033 7.97946 -1.36317022 0.08053403 -0.00560396 0.0
Cu 10.9249 10.0127 8.29645 -0.7444049 -0.19598943 -0.3141872 0.0
Cu 8.98079 12.6576 7.22853 0.28218038 -0.20716915 -0.17268798 0.0
Cu 7.98998 13.3971 9.49664 0.12995718 0.50111154 -0.65967493 0.0
Cu 10.6027 11.1345 6.06651 -0.24860002 0.22364223 0.32776302 0.0
Cu 12.8669 11.4583 7.33628 -0.96123252 -0.13030058 0.61739222 0.0
Cu 11.2333 13.4912 6.95602 0.26357924 -0.56578801 0.53146462 0.0
Cu 12.5982 13.3386 9.24829 -0.42391665 -0.37252527 -0.13463029 0.0
Cu 6.83887 11.4524 12.8089 0.39047411 -0.35484966 0.30891625 0.0
Cu 8.7837 12.1129 11.1295 0.19449987 0.3865608 0.21618286 0.0
Cu 6.35604 11.3941 10.5082 -0.56573218 0.8822377 -1.29697772 0.0
Cu 9.45854 10.7997 12.8509 0.11814518 0.73076889 1.13676249 0.0
Cu 12.6786 10.893 9.92687 -0.44106579 -0.01955577 0.04494397 0.0
Cu 11.3637 12.3452 11.6519 -0.50479326 -0.4255051 -0.78249593 0.0
Cu 10.0319 10.062 10.6305 1.10540195 0.11153658 -0.06534319 0.0
Cu 9.9446 14.3071 10.8008 0.15006858 -0.78235568 -0.33496504 0.0
Cu 11.8765 9.96674 12.3772 0.21563619 -0.21786116 -0.70799794 0.0
6
Lattice="4.792698233 0.0 0.0 0.4182695095 4.336953909 0.0 -0.05578525812 -0.1043612065 4.286553046" Properties=species:S:1:pos:R:3:forces:R:3:magmoms:R:1 energy=-20.31555061 stress="0.026011241881179748 -0.0016079842550152882 -0.0023401865195909867 -0.0016079842550152882 0.031542570865105965 -0.0013477467415058165 -0.0023401865195909867 -0.0013477467415058165 0.03889451724672177" dipole="0.0 0.0 0.0" magmom=0.0 free_energy=-20.31534916 pbc="T T T"
Cu 0.56979596 -0.02340795 3.18731909 -0.09851888 0.14808118 -0.20420223 0.0
Cu 2.91877032 0.23492215 2.58529159 0.12275085 0.19688215 -0.03850473 0.0
Cu 2.80017066 3.50200789 0.42349316 0.12625241 -0.02086365 0.05248125 0.0
Cu 1.38807984 1.53615746 1.15885109 0.10338182 -0.128844 -0.26095355 0.0
Cu 4.29062005 2.34080656 2.55744312 -0.09758017 0.03132866 0.21486299 0.0
Cu 3.83808124 1.26035914 0.40511366 -0.15628605 -0.22658434 0.23631627 0.0
36
Lattice="7.733566089 0.0 0.0 -3.864772485 6.698005786 0.0 3.852419067E-4 0.001265772404 8.348787209" Properties=species:S:1:pos:R:3:forces:R:3:magmoms:R:1 energy=-133.96737342 stress="0.011215726092063073 -1.6123971392804886e-05 1.8351160301739437e-05 -1.6123971392804886e-05 0.011208764119297278 4.854790601123719e-05 1.8351160301739437e-05 4.854790601123719e-05 -0.0066220607530163254" dipole="0.0 0.0 0.0" magmom=0.0 free_energy=-133.97024519 pbc="T T T"
Cu 9.7514E-4 1.49160699 1.04153118 -0.01700474 -0.03098933 0.02214656 0.0
Cu 1.29007514 0.74478399 3.12349118 -0.02093684 0.00210109 0.02730814 0.0
Cu 2.57777514 1.48838699 1.04259119 0.00787785 0.01303606 0.00292469 0.0
Cu 3.86457514 0.74342699 3.13516118 0.02495106 0.00931642 -0.02363954 0.0
Cu 5.15931514 1.48828699 1.04077119 -0.01595671 0.00360777 0.02462495 0.0
Cu 6.44183514 0.75402199 3.13815118 0.01749155 -0.04696765 -0.04260798 0.0
Cu 0.00149404 2.97864699 3.12823119 -0.00275701 -9.2787E-4 0.02598829 0.0
Cu 2.58092514 2.97680699 3.13660118 -0.01420456 -0.01148402 -0.0292118 0.0
Cu 5.15851514 2.98048699 3.12758118 -0.00989825 -0.00817009 0.02263257 0.0
Cu 0.00143404 1.48859699 5.22102118 0.00927296 0.0059099 -0.0182502 0.0
Cu 1.29290514 0.74346899 7.31109119 -0.00624378 0.00205524 -0.0314591 0.0
Cu 2.57837514 1.48148699 5.22020118 -9.2875E-4 0.04034756 -0.0104287 0.0
Cu 3.87064514 0.74464399 7.30373119 -0.00559969 -0.0039963 0.01101667 0.0
Cu 5.15781514 1.49409699 5.22018119 -0.02015242 -0.01919539 -0.01979023 0.0
Cu 6.44364514 0.74642499 7.30186118 0.01512066 -0.02917971 0.01944474 0.0
Cu 0.00229384 2.97156699 7.30936119 0.01518068 0.02601423 -0.01976478 0.0
Cu 2.58528514 2.98012699 7.29756119 -0.02539521 -0.02526594 0.059529 0.0
Cu 5.15920514 2.97626699 7.30221118 -0.01689352 0.0304269 0.01446527 0.0
Cu -1.29088486 3.72655699 1.03729118 0.01709748 -0.03142218 0.03096144 0.0
Cu 1.28785514 3.72061699 1.04680119 0.02033033 0.00958108 -0.01777364 0.0
Cu 3.86749514 3.71591699 1.04372119 -0.01778015 0.02634655 -0.01672574 0.0
Cu -2.57807486 5.94856699 1.04014118 -0.02049984 0.02546537 0.01154842 0.0
Cu -1.28894486 5.20886699 3.12658119 0.00726181 0.00212181 0.02986693 0.0
Cu -0.00199729 5.95927699 1.04445119 0.02652374 -0.02110544 0.00221612 0.0
Cu 1.29091514 5.20685699 3.13529118 -0.01160713 0.02269972 -0.02252226 0.0
Cu 2.57409514 5.95514699 1.04921119 0.023592 8.7599E-4 -0.02060163 0.0
Cu 3.86644514 5.20831699 3.12897119 0.00907271 0.02387938 -0.0041848 0.0
Cu -1.28653486 3.72058699 5.22340119 -0.00913678 0.02165423 -0.04069135 0.0
Cu 1.29165514 3.72125699 5.22289118 -0.02749 -0.01771463 -0.02524386 0.0
Cu 3.86142514 3.72501699 5.21720119 0.06198361 -0.00902986 -0.00490868 0.0
Cu -2.57501486 5.96291699 5.21356118 -0.00363798 -0.06085003 0.02307735 0.0
Cu -1.28116486 5.20959699 7.30692119 -0.03198351 0.00680571 -0.02973903 0.0
Cu 0.00151494 5.95294699 5.21896119 0.01183154 -0.00259272 -0.00411436 0.0
Cu 1.29396514 5.20561699 7.30532119 -0.01447501 0.02402533 0.01522486 0.0
Cu 2.58125514 5.95046699 5.21302118 -0.01605735 0.04061349 0.02629644 0.0
Cu 3.86411514 5.21522699 7.30309119 0.04105126 -0.01799269 0.01238522 0.0
32
Lattice="6.855195049 0.0 0.0 0.0 6.855195049 0.0 0.0 0.0 6.855195049" Properties=species:S:1:pos:R:3:forces:R:3:magmoms:R:1 energy=-110.60930596 stress="-0.2513785278797148 -0.0010820129300940552 0.004995919305078403 -0.0010820129300940552 -0.24953325504174032 -0.003335395486754565 0.004995919305078403 -0.003335395486754565 -0.25320521656809336" dipole="0.0 0.0 0.0" magmom=0.0 free_energy=-110.60886257 pbc="T T T"
Cu 5.17683752 3.32746752 1.60923752 -0.14964042 0.7822582 1.20406504 0.0
Cu 5.28075752 0.07699052 1.73392752 -1.22035368 -0.43514555 0.19025457 0.0
Cu 1.66597752 0.01440952 1.56205752 0.90209818 -1.15936885 1.99571105 0.0
Cu 0.08413552 1.73155752 1.69959752 -0.90357029 0.01553376 -0.05937191 0.0
Cu 3.40171752 1.64064752 1.80282752 0.56749687 -0.07672854 -0.88312459 0.0
Cu 1.70018752 1.70835752 3.28812752 0.14101099 -0.33229262 1.68217182 0.0
Cu 5.17889752 1.80669752 3.35475752 -0.54306541 -1.05321743 0.55853048 0.0
Cu 3.45404752 3.27210752 0.05150552 -0.21788879 1.1825084 -0.74808574 0.0
Cu 9.7452E-4 3.39617752 3.43481752 0.01537871 0.867205 -0.18561827 0.0
Cu 5.17962752 3.35178752 5.13366752 -0.87062081 1.27552696 -0.08801936 0.0
Cu 3.36188752 1.81137752 5.04962752 -0.1875992 -0.75234314 -0.35525539 0.0
Cu 0.04162452 1.71708752 5.05827752 -0.37980737 -0.01230962 0.42592859 0.0
Cu 6.74920752 3.32543752 6.84051752 1.16591395 1.11642859 -0.06800597 0.0
Cu 1.58106752 0.02521752 5.20971752 2.25551567 -0.19627825 -1.11587212 0.0
Cu 1.67188752 1.67841752 6.85085752 0.47614649 1.1210422 -0.41390568 0.0
Cu 5.08755752 0.19794852 5.17290752 0.47080061 -1.68335055 -1.51278034 0.0
Cu 3.41916752 0.10446252 6.78282752 -0.43676513 -0.68705469 0.88754348 0.0
Cu 0.02046552 0.01487752 6.84419752 -1.07770903 0.06642258 0.41533158 0.0
Cu 5.06255752 1.64138752 6.85058752 1.16653401 0.70010037 0.37660669 0.0
Cu 3.63880752 5.05533752 1.72176752 -1.33498167 1.26246508 0.00709119 0.0
Cu 3.33578752 3.45411752 3.33336752 1.27944204 0.29534887 1.36123319 0.0
Cu 1.76487752 3.43643752 1.65357752 -0.94326756 0.35076736 0.06078088 0.0
Cu 6.78718752 5.12496752 1.78745752 0.61939041 -0.49752519 -1.21078711 0.0
Cu 5.10002752 5.25525752 0.00414852 0.55488648 -0.79924657 -0.57469579 0.0
Cu 1.84254752 5.13849752 0.09627052 -1.14536192 -0.49902795 -0.00117519 0.0
Cu 3.40630752 6.75338752 3.38823752 -0.44740979 0.40230687 0.55184781 0.0
Cu 3.34766752 5.15800752 5.28465752 0.99672132 -0.47139819 -1.72646797 0.0
Cu 5.20100752 5.25733752 3.51441752 -0.47010902 -1.24707548 0.67514038 0.0
Cu 1.66634752 3.42859752 5.19048752 0.25066552 0.06954066 0.03948766 0.0
Cu 0.04376552 5.19258752 5.30821752 -0.88923305 -1.0627089 -0.91945213 0.0
Cu 1.63944752 5.06898752 3.48638752 0.78960723 0.74461589 -0.56014527 0.0
Cu 0.08036052 6.80680752 3.43929752 -0.43422536 0.71300076 -0.00896157 0.0
6
Lattice="4.27323373 0.0 0.0 1.360552792 4.054166111 0.0 2.140133339 -0.01212634131 3.731168031" Properties=species:S:1:pos:R:3:forces:R:3:magmoms:R:1 energy=-21.94790481 stress="-0.11838745636251392 -0.003260978516457953 -0.0003234915759419875 -0.003260978516457953 -0.11669558780394858 -0.00014058843892474806 -0.0003234915759419875 -0.00014058843892474806 -0.11728432531749998" dipole="0.0 0.0 0.0" magmom=0.0 free_energy=-21.94793122 pbc="T T T"
Cu 3.09280016 1.16678513 1.43326606 0.21095991 0.00869755 -0.05313914 0.0
Cu 0.97608113 1.19032496 0.18474957 0.05438452 -0.13958665 -0.00400699 0.0
Cu 5.24352987 1.14166619 2.68077185 0.13202592 0.14281334 -0.09068255 0.0
Cu 5.99014278 3.21366727 1.40418888 -0.13681674 -0.14305546 0.08551982 0.0
Cu 3.84287124 3.17808391 0.16871188 -0.04851303 0.13202077 0.00388169 0.0
Cu 3.86710981 3.18742081 2.65109513 -0.21204058 -8.8954E-4 0.05842717 0.0
5
Lattice="3.833695552 0.0 0.0 -0.004752319759 2.488232558 0.0 0.1495999307 -0.1500758625 6.12163852" Properties=species:S:1:pos:R:3:forces:R:3:magmoms:R:1 energy=-17.06040982 stress="-0.11913012759772759 -9.960649651741568e-05 -0.005949825666061798 -9.960649651741568e-05 -0.12784582530465546 -0.0002748943495256376 -0.005949825666061798 -0.0002748943495256376 -0.12352476859335283" dipole="0.0 0.0 0.0" magmom=0.0 free_energy=-17.06054604 pbc="T T T"
Cu 0.36720888 -0.03999272 6.02254093 0.15865827 -0.01473723 -0.08584699 0.0
Cu 3.87591685 1.17431802 4.11347134 -0.20874961 0.10592948 -0.33286503 0.0
Cu 1.95030287 0.02069745 2.96842888 0.1631385 -0.04636673 0.00480231 0.0
Cu 0.05758691 1.32023763 1.84725459 -0.07426032 0.1054388 0.21904462 0.0
Cu 2.26662406 1.22966758 6.11526033 -0.03878685 -0.15026433 0.19486509 0.0
36
Lattice="7.73376389 0.0 0.0 -3.866881945 6.697635996 0.0 0.0 0.0 8.367387472" Properties=species:S:1:pos:R:3:forces:R:3:magmoms:R:1 energy=-133.97713031 stress="0.012377705499221325 -0.00016413553074360278 3.728871038585561e-06 -0.00016413553074360278 0.012513471642089762 3.922332855451438e-06 3.728871038585561e-06 3.922332855451438e-06 -0.0033695187783381745" dipole="0.0 0.0 0.0" magmom=0.0 free_energy=-133.9799733 pbc="T T T"
Cu -0.00230795 1.4849121 1.04961132 0.04012544 -0.00251753 -0.03846943 0.0
Cu 1.29592404 0.7417801 3.13279132 -0.05282333 0.01524307 0.03235547 0.0
Cu 2.58108404 1.4786021 1.04882132 -0.02271219 0.04963556 -0.0373494 0.0
Cu 3.87081404 0.7451671 3.13831132 -0.00306497 0.00795071 0.00793873 0.0
Cu 5.15535404 1.4848521 1.04352132 0.00234964 0.01099638 0.02592951 0.0
Cu 6.44071404 0.7416581 3.13302132 0.03361879 0.01429297 0.03598228 0.0
Cu -0.00654851 2.9788121 3.13965132 0.03412852 -0.03003352 0.00257502 0.0
Cu 2.57334404 2.9787321 3.13237132 0.02258191 -0.03178327 0.02133689 0.0
Cu 5.15720404 2.9813121 3.14487132 -0.01932443 -0.02673851 -0.04421166 0.0
Cu -0.00537089 1.4879821 5.23295132 0.02342153 0.02539117 -0.05111751 0.0
Cu 1.29485404 0.7393361 7.31467132 -0.03496513 0.01808153 0.05693194 0.0
Cu 2.57070404 1.4867721 5.22993132 0.02035653 0.02622854 -0.01678595 0.0
Cu 3.87130404 0.7462721 7.32330132 -0.01352562 0.02091187 -0.01378054 0.0
Cu 5.15434404 1.4932321 5.23290132 -0.01324723 -0.00544084 -0.00984701 0.0
Cu 6.44639404 0.7484911 7.32114132 0.01040329 -0.02798183 0.01278447 0.0
Cu -8.5597E-4 2.9776921 7.31574132 0.03748927 -0.00823575 0.01874453 0.0
Cu 2.57756404 2.9781521 7.32111132 0.00334657 -0.0171189 0.0106745 0.0
Cu 5.16588404 2.9830221 7.32699132 -0.06797609 -0.02143468 -0.03267699 0.0
Cu -1.28758596 3.7125321 1.04355132 0.01430794 0.03828574 0.0277507 0.0
Cu 1.28977404 3.7167921 1.04366132 -0.00232258 6.8002E-4 8.657E-5 0.0
Cu 3.87330404 3.7201421 1.04768132 -0.03848471 -0.03035734 1.6806E-4 0.0
Cu -2.57604596 5.9456921 1.04832132 -9.2855E-4 0.02286276 -0.01749155 0.0
Cu -1.27970596 5.2100321 3.14201132 -0.02636747 -0.00410497 -0.02836677 0.0
Cu -0.00326785 5.9525321 1.04585132 0.0312451 -0.02408895 0.0159637 0.0
Cu 1.29593404 5.2052221 3.13768132 -0.03040746 0.02843522 -0.01709519 0.0
Cu 2.58024404 5.9514921 1.04417132 -0.01706588 -0.00639075 0.00772805 0.0
Cu 3.86840404 5.2063221 3.13820132 0.00364224 0.02234777 -0.00113925 0.0
Cu -1.30322596 3.7244021 5.23139132 0.07209481 0.00507671 -0.00118452 0.0
Cu 1.28885404 3.7301921 5.22437132 -0.03878882 -0.04228031 0.0318857 0.0
Cu 3.85670404 3.7209821 5.23019132 0.01821162 0.00108579 0.01357962 0.0
Cu -2.58231596 5.9533121 5.22306132 -0.00140777 -0.00262262 0.03791876 0.0
Cu -1.28334596 5.2127221 7.31911132 -0.03339231 -0.00491738 0.00772237 0.0
Cu 3.2834E-4 5.9606721 5.23002132 -0.00658255 -0.02138943 -0.00374161 0.0
Cu 1.28406404 5.2121121 7.32302132 0.03772724 -0.00992243 -0.01003308 0.0
Cu 2.57673404 5.9597621 5.23058132 0.00278577 -0.01603819 0.00689709 0.0
Cu 3.86461404 5.2057721 7.32837132 0.01555088 0.02589139 -0.05166349 0.0
32
Lattice="8.03 0.0 0.0 0.0 8.03 0.0 0.0 0.0 8.03" Properties=species:S:1:pos:R:3:forces:R:3:magmoms:R:1 energy=-107.12285823 stress="0.026690540958366732 -0.0010187534999636914 0.000716184910641782 -0.0010187534999636914 0.04698195989304502 -0.004148506945932836 0.000716184910641782 -0.004148506945932836 0.03735463427878276" dipole="0.0 0.0 0.0" magmom=0.0 free_energy=-107.12415221 pbc="T T T"
Cu 3.84897 1.94712 1.56377 0.90798109 0.0600414 1.18939506 0.0
Cu 7.19262 1.70139 2.89703 -0.33467702 0.43415061 0.22965438 0.0
Cu 6.25207 1.86685 0.554267 -0.22107232 -0.19147916 0.17614823 0.0
Cu 1.55235 2.12074 2.35754 -0.13153474 -0.01245765 0.66905475 0.0
Cu 5.30908 3.95606 2.16342 -0.05057816 -0.4412592 0.14992266 0.0
Cu 2.14148 3.84659 0.687003 0.16477997 0.51645066 0.32128171 0.0
Cu 0.659803 1.58219 0.109263 -0.54106256 0.80606698 -0.14246835 0.0
Cu 7.66676 3.94578 1.38508 0.42611983 -0.61688932 0.34207692 0.0
Cu 7.86569 -0.489202 1.50281 -0.28647159 1.63807268 0.16401453 0.0
Cu 5.58285 -0.137774 2.239 -0.28413796 0.79516211 1.13998012 0.0
Cu 3.18611 4.12452 3.5138 -0.14896528 0.33731981 -0.8565257 0.0
Cu 0.810531 -0.0676838 3.67748 -0.49187573 0.37443033 0.78522325 0.0
Cu 2.53173 2.3784 4.95854 -0.57951587 -1.04139215 -3.3389E-4 0.0
Cu 7.87115 2.02451 5.42711 0.05123312 -0.57856048 -0.28660323 0.0
Cu 2.95595 1.74842 7.52561 0.24702495 0.26017039 -1.31494081 0.0
Cu 5.82342 0.0164826 4.90932 0.09381532 0.11724641 -0.70016455 0.0
Cu 1.26503 3.75469 6.40257 -0.04806638 0.5842082 0.90422698 0.0
Cu 1.62226 0.129981 6.2371 0.02744071 -0.25577582 -0.37216435 0.0
Cu 4.75252 2.15675 4.06434 0.31492494 -0.39997808 -0.64395648 0.0
Cu 4.04739 6.16808 1.61515 -1.80257673 -0.91893393 1.00728272 0.0
Cu 1.4682 5.99612 2.46751 0.57833694 -0.86639194 -0.01347989 0.0
Cu 6.94209 5.72235 3.18757 0.13933932 0.31979496 0.28736937 0.0
Cu 6.1991 5.89601 0.923016 0.21496411 -0.28687477 -0.90054632 0.0
Cu 2.25768 8.01092 1.04025 0.38727809 -0.46781267 0.38802972 0.0
Cu 3.17374 7.93439 3.93578 0.6324225 0.15703002 -0.1312059 0.0
Cu 4.76726 7.70985 0.00284227 -0.13410647 0.98642047 -1.00629997 0.0
Cu 0.39185 5.88737 8.11116 1.04539131 -0.71638031 -1.40105941 0.0
Cu -0.216997 6.38771 5.50977 -0.28362148 -0.52874669 -0.3257878 0.0
Cu 1.99049 5.77811 5.09574 0.62328248 0.31349986 -0.40718496 0.0
Cu 2.76366 6.17072 7.44013 -0.02003706 -0.2518201 0.08117482 0.0
Cu 7.19346 8.16157 6.85075 -0.43600393 0.0813849 1.25460371 0.0
Cu 0.581699 4.02097 4.06527 -0.06003139 -0.20669749 -0.58671732 0.0
32
Lattice="8.03 0.0 0.0 0.0 8.03 0.0 0.0 0.0 8.03" Properties=species:S:1:pos:R:3:forces:R:3:magmoms:R:1 energy=-108.53015456 stress="0.12336145803407794 -1.0966275360594753e-05 -1.2175162055641451e-05 -1.0966275360594753e-05 0.12336491610476008 1.0299919363297203e-05 -1.2175162055641451e-05 1.0299919363297203e-05 0.12336401445635177" dipole="0.0 0.0 0.0" magmom=0.0 free_energy=-108.52596153 pbc="T T T"